 Input=./qm.inp
 Output=./qm.log
 Initial command:
 /usr/usc/gaussian/g03-E01/g03/l1.exe /tmp/Gau-12516.inp -scrdir=/tmp/
 Entering Link 1 = /usr/usc/gaussian/g03-E01/g03/l1.exe PID=     12517.

 Copyright (c) 1988,1990,1992,1993,1995,1998,2003,2004,2007, Gaussian, Inc.
                  All Rights Reserved.

 This is the Gaussian(R) 03 program.  It is based on the
 the Gaussian(R) 98 system (copyright 1998, Gaussian, Inc.),
 the Gaussian(R) 94 system (copyright 1995, Gaussian, Inc.),
 the Gaussian 92(TM) system (copyright 1992, Gaussian, Inc.),
 the Gaussian 90(TM) system (copyright 1990, Gaussian, Inc.),
 the Gaussian 88(TM) system (copyright 1988, Gaussian, Inc.),
 the Gaussian 86(TM) system (copyright 1986, Carnegie Mellon
 University), and the Gaussian 82(TM) system (copyright 1983,
 Carnegie Mellon University). Gaussian is a federally registered
 trademark of Gaussian, Inc.

 This software contains proprietary and confidential information,
 including trade secrets, belonging to Gaussian, Inc.

 This software is provided under written license and may be
 used, copied, transmitted, or stored only in accord with that
 written license.

 The following legend is applicable only to US Government
 contracts under FAR:

                    RESTRICTED RIGHTS LEGEND

 Use, reproduction and disclosure by the US Government is
 subject to restrictions as set forth in subparagraphs (a)
 and (c) of the Commercial Computer Software - Restricted
 Rights clause in FAR 52.227-19.

 Gaussian, Inc.
 340 Quinnipiac St., Bldg. 40, Wallingford CT 06492


 ---------------------------------------------------------------
 Warning -- This program may not be used in any manner that
 competes with the business of Gaussian, Inc. or will provide
 assistance to any competitor of Gaussian, Inc.  The licensee
 of this program is prohibited from giving any competitor of
 Gaussian, Inc. access to this program.  By using this program,
 the user acknowledges that Gaussian, Inc. is engaged in the
 business of creating and licensing software in the field of
 computational chemistry and represents and warrants to the
 licensee that it is not a competitor of Gaussian, Inc. and that
 it will not use this program in any manner prohibited above.
 ---------------------------------------------------------------


 Cite this work as:
 Gaussian 03, Revision E.01,
 M. J. Frisch, G. W. Trucks, H. B. Schlegel, G. E. Scuseria,
 M. A. Robb, J. R. Cheeseman, J. A. Montgomery, Jr., T. Vreven,
 K. N. Kudin, J. C. Burant, J. M. Millam, S. S. Iyengar, J. Tomasi,
 V. Barone, B. Mennucci, M. Cossi, G. Scalmani, N. Rega,
 G. A. Petersson, H. Nakatsuji, M. Hada, M. Ehara, K. Toyota,
 R. Fukuda, J. Hasegawa, M. Ishida, T. Nakajima, Y. Honda, O. Kitao,
 H. Nakai, M. Klene, X. Li, J. E. Knox, H. P. Hratchian, J. B. Cross,
 V. Bakken, C. Adamo, J. Jaramillo, R. Gomperts, R. E. Stratmann,
 O. Yazyev, A. J. Austin, R. Cammi, C. Pomelli, J. W. Ochterski,
 P. Y. Ayala, K. Morokuma, G. A. Voth, P. Salvador, J. J. Dannenberg,
 V. G. Zakrzewski, S. Dapprich, A. D. Daniels, M. C. Strain,
 O. Farkas, D. K. Malick, A. D. Rabuck, K. Raghavachari,
 J. B. Foresman, J. V. Ortiz, Q. Cui, A. G. Baboul, S. Clifford,
 J. Cioslowski, B. B. Stefanov, G. Liu, A. Liashenko, P. Piskorz,
 I. Komaromi, R. L. Martin, D. J. Fox, T. Keith, M. A. Al-Laham,
 C. Y. Peng, A. Nanayakkara, M. Challacombe, P. M. W. Gill,
 B. Johnson, W. Chen, M. W. Wong, C. Gonzalez, and J. A. Pople,
 Gaussian, Inc., Wallingford CT, 2004.

 ******************************************
 Gaussian 03:  EM64L-G03RevE.01 11-Sep-2007
                21-Jul-2015
 ******************************************
 %NProc=8
 Will use up to    8 processors via shared memory.
 %MEM=8GB
 %Chk=/tmp/Check.file10402
 ----------------------------------------------------
 # b3lyp/6-31+G* force pop=(mk) NoSymm SCF=(Conver=5)
 ----------------------------------------------------
 1/10=7,30=1,38=1/1,3;
 2/15=1,17=6,18=5,40=1/2;
 3/5=1,6=6,7=11,11=2,16=1,25=1,30=1,74=-5/1,2,3;
 4//1;
 5/5=2,6=5,38=5/2;
 6/7=2,8=2,9=2,10=2,15=8,20=1,28=1/1,2;
 7/29=1,30=1/1,2,3,16;
 1/10=7,30=1/3;
 99//99;
 ---------------------
 snapshot of MD step 0
 ---------------------
 Symbolic Z-matrix:
 Charge =  1 Multiplicity = 1
 O                     7.782    -0.68     -55.039
 H                     7.378    -0.675    -55.949


 GradGradGradGradGradGradGradGradGradGradGradGradGradGradGradGradGradGrad
 Berny optimization.
 Initialization pass.
 Trust Radius=3.00D-01 FncErr=1.00D-07 GrdErr=1.00D-07
 Number of steps in this run=   2 maximum allowed number of steps=   2.
 GradGradGradGradGradGradGradGradGradGradGradGradGradGradGradGradGradGrad

                          Input orientation:
 ---------------------------------------------------------------------
 Center     Atomic     Atomic              Coordinates (Angstroms)
 Number     Number      Type              X           Y           Z
 ---------------------------------------------------------------------
    1          8             0        7.782000   -0.680000  -55.039000
    2          1             0        7.378000   -0.675000  -55.949000
 ---------------------------------------------------------------------
 Symmetry turned off by external request.
 Stoichiometry    HO(1+)
 Framework group  C*V[C*(HO)]
 Deg. of freedom     1
 Full point group                 C*V
 Rotational constants (GHZ):      0.0000000    537.7073389    537.7073389
 Standard basis: 6-31+G(d) (6D, 7F)
 Integral buffers will be    131072 words long.
 Raffenetti 2 integral format.
 Two-electron integral symmetry is turned off.
    21 basis functions,    36 primitive gaussians,    21 cartesian basis functions
     4 alpha electrons        4 beta electrons
       nuclear repulsion energy         4.2518661440 Hartrees.
 NAtoms=    2 NActive=    2 NUniq=    2 SFac= 7.50D-01 NAtFMM=   80 NAOKFM=F Big=F
 One-electron integrals computed using PRISM.
 NBasis=    21 RedAO= T  NBF=    21
 NBsUse=    21 1.00D-06 NBFU=    21
 Harris functional with IExCor=  402 diagonalized for initial guess.
 ExpMin= 8.45D-02 ExpMax= 5.48D+03 ExpMxC= 8.25D+02 IAcc=2 IRadAn=         4 AccDes= 0.00D+00
 HarFok:  IExCor= 402 AccDes= 0.00D+00 IRadAn=         4 IDoV=1
 ScaDFX=  1.000000  1.000000  1.000000  1.000000
 Requested convergence on RMS density matrix=1.00D-05 within 128 cycles.
 Requested convergence on MAX density matrix=1.00D-03.
 Requested convergence on             energy=1.00D-03.
 No special actions if energy rises.
 Keep R1 integrals in memory in canonical form, NReq=     1739955.
 Integral accuracy reduced to 1.0D-05 until final iterations.
 Initial convergence to 1.0D-05 achieved.  Increase integral accuracy.
 SCF Done:  E(RB+HF-LYP) =  -75.1349119651     A.U. after    7 cycles
             Convg  =    0.1016D-05             -V/T =  2.0086
             S**2   =   0.0000

 **********************************************************************

            Population analysis using the SCF density.

 **********************************************************************

 Alpha  occ. eigenvalues --  -19.85661  -1.51868  -0.97772  -0.85736
 Alpha virt. eigenvalues --   -0.77119  -0.30368  -0.13070  -0.10728  -0.10381
 Alpha virt. eigenvalues --   -0.06212   0.53351   0.66376   0.68071   0.73507
 Alpha virt. eigenvalues --    0.80142   1.20236   1.24557   1.26201   1.27099
 Alpha virt. eigenvalues --    1.93442   3.14078
          Condensed to atoms (all electrons):
              1          2
     1  O    7.430187   0.176758
     2  H    0.176758   0.216297
 Mulliken atomic charges:
              1
     1  O    0.393055
     2  H    0.606945
 Sum of Mulliken charges=   1.00000
 Atomic charges with hydrogens summed into heavy atoms:
              1
     1  O    1.000000
     2  H    0.000000
 Sum of Mulliken charges=   1.00000
 Electronic spatial extent (au):  <R**2>= 88451.6047
 Charge=     1.0000 electrons
 Dipole moment (field-independent basis, Debye):
    X=    36.3333    Y=    -3.2532    Z=  -266.7180  Tot=   269.2010
 Quadrupole moment (field-independent basis, Debye-Ang):
   XX=   270.0032   YY=    -1.0787   ZZ= 14806.9738
   XY=   -24.6727   XZ= -2016.9043   YZ=   180.6787
 Traceless Quadrupole moment (field-independent basis, Debye-Ang):
   XX= -4755.2962   YY= -5026.3781   ZZ=  9781.6743
   XY=   -24.6727   XZ= -2016.9043   YZ=   180.6787
 Octapole moment (field-independent basis, Debye-Ang**2):
  XXX=  1966.2575  YYY=     5.2000  ZZZ=***********  XYY=    -8.7003
  XXY=  -183.8562  XXZ=-14985.3482  XZZ=111932.3910  YZZ=-10032.0229
  YYZ=    58.4467  XYZ=  1369.8109
 Hexadecapole moment (field-independent basis, Debye-Ang**3):
 XXXX= 13970.8357 YYYY=    -9.6380 ZZZZ=*********** XXXY= -1343.0754
 XXXZ=*********** YYYX=    40.4960 YYYZ=  -285.8065 ZZZX=***********
 ZZZY=556883.4418 XXYY=   -73.0670 XXZZ=831473.3600 YYZZ= -3168.1047
 XXYZ= 10205.4776 YYXZ=   472.1408 ZZXY=-76031.2550
 N-N= 4.251866144041D+00 E-N=-1.819405760387D+02  KE= 7.449741218948D+01
 Merz-Kollman atomic radii used.

 **********************************************************************

            Electrostatic Properties Using The SCF Density

 **********************************************************************

       Atomic Center    1 is at   7.782000 -0.680000-55.039000
       Atomic Center    2 is at   7.378000 -0.675000-55.949000
     276 points will be used for fitting atomic charges
 Fitting point charges to eletrostatic potential
 Charges from ESP fit, RMS=   0.00615 RRMS=   0.02875:
 Charge=   1.00000 Dipole=    36.3409    -3.2533  -266.7007 Tot=   269.1849
              1
     1  O    0.465293
     2  H    0.534707
 -----------------------------------------------------------------

              Electrostatic Properties (Atomic Units)

 -----------------------------------------------------------------
    Center     Electric         -------- Electric Field --------
               Potential          X             Y             Z
 -----------------------------------------------------------------
    1 Atom    -21.624635
    2 Atom     -0.439768
 -----------------------------------------------------------------
 -------------------------------------------------------------------
 Center     Atomic                   Forces (Hartrees/Bohr)
